<?xml version="1.0"?>
<VTKFile type="UnstructuredGrid" version="2.2">
  <UnstructuredGrid>
    <Piece NumberOfPoints="441" NumberOfCells="200">
      <Points>
        <DataArray type="Float64" NumberOfComponents="3" format="ascii">1 -2.154228071576087e-18 0 1 0.05 0 0.9500000000000001 2.391673605357621e-34 0 0.95 0.05 0 0.9000000000000001 -2.154228071576087e-18 0 1 0.1 0 0.9500000000000001 0.1 0 0.9000000000000001 0.05 0 0.8500000000000001 2.391673605357621e-34 0 1 0.15 0 0.9000000000000001 0.1 0 0.85 0.05 0 0.8000000000000002 -2.154228071576087e-18 0 0.95 0.15 0 1 0.2 0 0.8500000000000001 0.1 0 0.8 0.05 0 0.9500000000000001 0.2 0 0.9000000000000001 0.15 0 0.7500000000000001 2.391673605357621e-34 0 1 0.2500000000000001 0 0.85 0.15 0 0.8000000000000002 0.1 0 0.9000000000000001 0.2 0 0.75 0.05 0 0.7000000000000002 -2.154228071576087e-18 0 0.95 0.25 0 1 0.3000000000000001 0 0.8500000000000001 0.2 0 0.8 0.15 0 0.7500000000000001 0.1 0 0.7000000000000001 0.05 0 0.9500000000000001 0.3 0 0.9000000000000001 0.2500000000000001 0 0.6500000000000001 2.391673605357621e-34 0 1 0.35 0 0.8000000000000002 0.2 0 0.75 0.15 0 0.7000000000000002 0.1 0 0.85 0.25 0 0.9000000000000001 0.3000000000000001 0 0.65 0.05 0 0.6000000000000002 -2.154228071576087e-18 0 0.95 0.35 0 1 0.4000000000000001 0 0.7500000000000001 0.2 0 0.7000000000000001 0.15 0 0.8500000000000001 0.3 0 0.8 0.2500000000000001 0 0.6500000000000001 0.1 0 0.6000000000000001 0.05 0 0.9500000000000001 0.4000000000000001 0 0.9000000000000001 0.35 0 0.55 2.391673605357621e-34 0 1 0.4500000000000001 0 0.75 0.25 0 0.7000000000000002 0.2 0 0.8000000000000002 0.3000000000000001 0 0.65 0.15 0 0.6000000000000002 0.1 0 0.85 0.35 0 0.9000000000000001 0.4000000000000001 0 0.55 0.05 0 0.5000000000000001 -2.154228071576087e-18 0 0.95 0.45 0 1 0.5000000000000001 0 0.7500000000000001 0.3 0 0.7000000000000001 0.2500000000000001 0 0.6500000000000001 0.2 0 0.6000000000000001 0.15 0 0.8500000000000001 0.4000000000000001 0 0.8 0.35 0 0.55 0.1 0 0.5 0.05 0 0.9500000000000001 0.5 0 0.9000000000000001 0.4500000000000001 0 0.4500000000000001 2.391673605357621e-34 0 1 0.55 0 0.7000000000000002 0.3000000000000001 0 0.65 0.25 0 0.6000000000000002 0.2 0 0.75 0.35 0 0.8000000000000002 0.4000000000000001 0 0.55 0.15 0 0.5000000000000001 0.1 0 0.85 0.45 0 0.9000000000000001 0.5000000000000001 0 0.45 0.05 0 0.4000000000000001 -2.154228071576087e-18 0 0.95 0.55 0 1 0.6000000000000002 0 0.6500000000000001 0.3 0 0.6000000000000001 0.2500000000000001 0 0.7500000000000001 0.4000000000000001 0 0.7000000000000001 0.35 0 0.55 0.2 0 0.5 0.15 0 0.8500000000000001 0.5 0 0.8 0.4500000000000001 0 0.4500000000000001 0.1 0 0.4 0.05 0 0.9500000000000001 0.6000000000000001 0 0.9000000000000001 0.55 0 0.35 2.391673605357621e-34 0 1 0.6500000000000001 0 0.65 0.35 0 0.6000000000000002 0.3000000000000001 0 0.7000000000000002 0.4000000000000001 0 0.55 0.25 0 0.5000000000000001 0.2 0 0.75 0.45 0 0.8000000000000002 0.5000000000000001 0 0.45 0.15 0 0.4000000000000001 0.1 0 0.85 0.55 0 0.9000000000000001 0.6000000000000002 0 0.35 0.05 0 0.3000000000000001 -2.154228071576087e-18 0 0.95 0.65 0 1 0.7000000000000002 0 0.6500000000000001 0.4000000000000001 0 0.6000000000000001 0.35 0 0.55 0.3 0 0.5 0.2500000000000001 0 0.7500000000000001 0.5 0 0.7000000000000001 0.4500000000000001 0 0.4500000000000001 0.2 0 0.4 0.15 0 0.8500000000000001 0.6000000000000001 0 0.8 0.55 0 0.35 0.1 0 0.3 0.05 0 0.9500000000000001 0.7000000000000001 0 0.9000000000000001 0.6500000000000001 0 0.2500000000000001 2.391673605357621e-34 0 1 0.7500000000000001 0 0.6000000000000002 0.4000000000000001 0 0.55 0.35 0 0.5000000000000001 0.3000000000000001 0 0.65 0.45 0 0.7000000000000002 0.5000000000000001 0 0.45 0.25 0 0.4000000000000001 0.2 0 0.75 0.55 0 0.8000000000000002 0.6000000000000002 0 0.35 0.15 0 0.3000000000000001 0.1 0 0.85 0.65 0 0.9000000000000001 0.7000000000000002 0 0.25 0.05 0 0.2 -2.154228071576087e-18 0 0.95 0.75 0 1 0.8000000000000002 0 0.55 0.4000000000000001 0 0.5 0.35 0 0.6500000000000001 0.5 0 0.6000000000000001 0.4500000000000001 0 0.4500000000000001 0.3 0 0.4 0.2500000000000001 0 0.7500000000000001 0.6000000000000001 0 0.7000000000000001 0.55 0 0.35 0.2 0 0.3 0.15 0 0.8500000000000001 0.7000000000000001 0 0.8 0.6500000000000001 0 0.2500000000000001 0.1 0 0.2 0.05 0 0.9500000000000001 0.8000000000000002 0 0.9000000000000001 0.7500000000000001 0 0.15 2.391673605357621e-34 0 1 0.8500000000000001 0 0.55 0.45 0 0.5000000000000001 0.4000000000000001 0 0.6000000000000002 0.5000000000000001 0 0.45 0.35 0 0.4000000000000001 0.3000000000000001 0 0.65 0.55 0 0.7000000000000002 0.6000000000000002 0 0.35 0.25 0 0.3000000000000001 0.2 0 0.75 0.65 0 0.8000000000000002 0.7000000000000002 0 0.25 0.15 0 0.2 0.1 0 0.85 0.75 0 0.9000000000000001 0.8000000000000002 0 0.15 0.05 0 0.1 -2.154228071576087e-18 0 0.95 0.85 0 1 0.9000000000000001 0 0.55 0.5 0 0.5 0.4500000000000001 0 0.4500000000000001 0.4000000000000001 0 0.4 0.35 0 0.6500000000000001 0.6000000000000001 0 0.6000000000000001 0.55 0 0.35 0.3 0 0.3 0.2500000000000001 0 0.7500000000000001 0.7000000000000001 0 0.7000000000000001 0.6500000000000001 0 0.2500000000000001 0.2 0 0.2 0.15 0 0.8500000000000001 0.8000000000000002 0 0.8 0.7500000000000001 0 0.15 0.1 0 0.1 0.05 0 0.9500000000000001 0.9000000000000001 0 0.9000000000000001 0.8500000000000001 0 0.05 2.391673605357621e-34 0 1 0.9500000000000001 0 0.5000000000000001 0.5000000000000001 0 0.45 0.45 0 0.4000000000000001 0.4000000000000001 0 0.55 0.55 0 0.6000000000000002 0.6000000000000002 0 0.35 0.35 0 0.3000000000000001 0.3000000000000001 0 0.65 0.65 0 0.7000000000000002 0.7000000000000002 0 0.25 0.25 0 0.2 0.2 0 0.75 0.75 0 0.8000000000000002 0.8000000000000002 0 0.15 0.15 0 0.1 0.1 0 0.85 0.85 0 0.9000000000000001 0.9000000000000001 0 2.154228071576087e-18 -1.666826783540951e-18 0 0.05 0.05 0 0.9999999999999999 0.9999999999999999 0 0.95 0.95 0 0.4500000000000001 0.5 0 0.4 0.4500000000000001 0 0.55 0.6000000000000001 0 0.5 0.55 0 0.45 0.55 0 0.4000000000000001 0.5000000000000001 0 0.5000000000000001 0.6000000000000002 0 0.35 0.4000000000000001 0 0.3 0.35 0 0.35 0.45 0 0.3000000000000001 0.4000000000000001 0 0.6500000000000001 0.7000000000000001 0 0.6000000000000001 0.6500000000000001 0 0.55 0.65 0 0.6000000000000002 0.7000000000000002 0 0.2500000000000001 0.3 0 0.2 0.2500000000000001 0 0.25 0.35 0 0.2 0.3000000000000001 0 0.7500000000000001 0.8000000000000002 0 0.7000000000000001 0.7500000000000001 0 0.65 0.75 0 0.7000000000000002 0.8000000000000002 0 0.15 0.2 0 0.1 0.15 0 0.15 0.25 0 0.1 0.2 0 0.8500000000000001 0.9000000000000001 0 0.8 0.8500000000000001 0 0.75 0.85 0 0.8000000000000002 0.9000000000000001 0 2.391673605357621e-34 0.05 0 0.05 0.1 0 0.05 0.15 0 2.154228071576087e-18 0.09999999999999999 0 0.9500000000000001 1 0 0.9000000000000001 0.9500000000000001 0 0.85 0.95 0 0.8999999999999999 0.9999999999999999 0 0.4500000000000001 0.6000000000000001 0 0.4 0.55 0 0.4000000000000001 0.6000000000000002 0 0.35 0.5 0 0.3 0.4500000000000001 0 0.35 0.55 0 0.3000000000000001 0.5000000000000001 0 0.55 0.7000000000000001 0 0.5 0.6500000000000001 0 0.45 0.65 0 0.5000000000000001 0.7000000000000002 0 0.2500000000000001 0.4000000000000001 0 0.2 0.35 0 0.25 0.45 0 0.2 0.4000000000000001 0 0.6500000000000001 0.8000000000000002 0 0.6000000000000001 0.7500000000000001 0 0.55 0.75 0 0.6000000000000002 0.8000000000000002 0 0.15 0.3 0 0.1 0.2500000000000001 0 0.15 0.35 0 0.1 0.3000000000000001 0 0.7500000000000001 0.9000000000000001 0 0.7000000000000001 0.8500000000000001 0 0.65 0.85 0 0.7000000000000002 0.9000000000000001 0 2.391673605357621e-34 0.15 0 0.05 0.2 0 0.05 0.25 0 2.154228071576087e-18 0.2 0 0.8500000000000001 1 0 0.8 0.9500000000000001 0 0.75 0.95 0 0.7999999999999999 0.9999999999999999 0 0.35 0.6000000000000001 0 0.3 0.55 0 0.4500000000000001 0.7000000000000001 0 0.4 0.6500000000000001 0 0.35 0.65 0 0.3000000000000001 0.6000000000000002 0 0.4000000000000001 0.7000000000000002 0 0.2500000000000001 0.5 0 0.2 0.4500000000000001 0 0.25 0.55 0 0.2 0.5000000000000001 0 0.55 0.8000000000000002 0 0.5 0.7500000000000001 0 0.45 0.75 0 0.5000000000000001 0.8000000000000002 0 0.15 0.4000000000000001 0 0.1 0.35 0 0.15 0.45 0 0.1 0.4000000000000001 0 0.6500000000000001 0.9000000000000001 0 0.6000000000000001 0.8500000000000001 0 0.55 0.85 0 0.6000000000000002 0.9000000000000001 0 2.391673605357621e-34 0.2500000000000001 0 0.05 0.3 0 0.05 0.35 0 2.154228071576087e-18 0.3 0 0.7500000000000001 1 0 0.7000000000000001 0.9500000000000001 0 0.65 0.95 0 0.7 0.9999999999999999 0 0.35 0.7000000000000001 0 0.3 0.6500000000000001 0 0.3000000000000001 0.7000000000000002 0 0.2500000000000001 0.6000000000000001 0 0.2 0.55 0 0.25 0.65 0 0.2 0.6000000000000002 0 0.4500000000000001 0.8000000000000002 0 0.4 0.7500000000000001 0 0.35 0.75 0 0.4000000000000001 0.8000000000000002 0 0.15 0.5 0 0.1 0.4500000000000001 0 0.15 0.55 0 0.1 0.5000000000000001 0 0.55 0.9000000000000001 0 0.5 0.8500000000000001 0 0.45 0.85 0 0.5000000000000001 0.9000000000000001 0 2.391673605357621e-34 0.35 0 0.05 0.4000000000000001 0 0.05 0.45 0 2.154228071576087e-18 0.4 0 0.6500000000000001 1 0 0.6000000000000001 0.9500000000000001 0 0.55 0.95 0 0.6000000000000001 0.9999999999999999 0 0.2500000000000001 0.7000000000000001 0 0.2 0.6500000000000001 0 0.35 0.8000000000000002 0 0.3 0.7500000000000001 0 0.25 0.75 0 0.2 0.7000000000000002 0 0.3000000000000001 0.8000000000000002 0 0.15 0.6000000000000001 0 0.1 0.55 0 0.15 0.65 0 0.1 0.6000000000000002 0 0.4500000000000001 0.9000000000000001 0 0.4 0.8500000000000001 0 0.35 0.85 0 0.4000000000000001 0.9000000000000001 0 2.391673605357621e-34 0.4500000000000001 0 0.05 0.5 0 0.05 0.55 0 2.154228071576087e-18 0.5 0 0.55 1 0 0.5 0.9500000000000001 0 0.45 0.95 0 0.4999999999999999 0.9999999999999999 0 0.2500000000000001 0.8000000000000002 0 0.2 0.7500000000000001 0 0.2 0.8000000000000002 0 0.15 0.7000000000000001 0 0.1 0.6500000000000001 0 0.15 0.75 0 0.1 0.7000000000000002 0 0.35 0.9000000000000001 0 0.3 0.8500000000000001 0 0.25 0.85 0 0.3000000000000001 0.9000000000000001 0 2.391673605357621e-34 0.55 0 0.05 0.6000000000000001 0 0.05 0.65 0 2.154228071576087e-18 0.6000000000000001 0 0.4500000000000001 1 0 0.4 0.9500000000000001 0 0.35 0.95 0 0.4 0.9999999999999999 0 0.15 0.8000000000000002 0 0.1 0.7500000000000001 0 0.2500000000000001 0.9000000000000001 0 0.2 0.8500000000000001 0 0.15 0.85 0 0.1 0.8000000000000002 0 0.2 0.9000000000000001 0 2.391673605357621e-34 0.6500000000000001 0 0.05 0.7000000000000001 0 0.05 0.75 0 2.154228071576087e-18 0.7000000000000001 0 0.35 1 0 0.3 0.9500000000000001 0 0.25 0.95 0 0.3 0.9999999999999999 0 0.15 0.9000000000000001 0 0.1 0.8500000000000001 0 0.1 0.9000000000000001 0 2.391673605357621e-34 0.7500000000000001 0 0.05 0.8000000000000002 0 0.05 0.85 0 2.154228071576087e-18 0.8 0 0.2500000000000001 1 0 0.2 0.9500000000000001 0 0.15 0.95 0 0.2 0.9999999999999999 0 2.391673605357621e-34 0.8500000000000001 0 0.15 1 0 0.05 0.9000000000000001 0 0.1 0.9500000000000001 0 0.05 0.95 0 2.154228071576087e-18 0.9 0 0.1 0.9999999999999999 0 -2.154228071576087e-18 1 0 0.05 1 0 2.391673605357621e-34 0.9500000000000001 0 </DataArray>
      </Points>
      <Cells>
        <DataArray type="Int32" Name="connectivity" format="ascii">4 0 5 2 1 3 4 10 5 7 6 3 12 4 10 8 7 11 10 5 14 6 9 13 12 22 10 16 15 11 10 23 14 18 17 13 25 12 22 19 16 24 22 10 23 15 18 21 23 14 27 17 20 26 25 38 22 31 30 24 22 36 23 29 28 21 23 40 27 33 32 26 42 25 38 34 31 41 38 22 36 30 29 37 36 23 40 28 33 39 40 27 44 32 35 43 42 59 38 50 49 41 38 56 36 46 45 37 36 57 40 48 47 39 40 61 44 52 51 43 63 42 59 53 50 62 59 38 56 49 46 58 56 36 57 45 48 55 57 40 61 47 52 60 61 44 65 51 54 64 63 84 59 73 72 62 59 80 56 69 68 58 56 78 57 67 66 55 57 82 61 71 70 60 61 86 65 75 74 64 88 63 84 76 73 87 84 59 80 72 69 83 80 56 78 68 67 79 78 57 82 66 71 81 82 61 86 70 75 85 86 65 90 74 77 89 88 113 84 100 99 87 84 109 80 96 95 83 80 106 78 92 91 79 78 107 82 94 93 81 82 111 86 98 97 85 86 115 90 102 101 89 117 88 113 103 100 116 113 84 109 99 96 112 109 80 106 95 92 108 106 78 107 91 94 105 107 82 111 93 98 110 111 86 115 97 102 114 115 90 119 101 104 118 117 146 113 131 130 116 113 142 109 127 126 112 109 138 106 123 122 108 106 136 107 121 120 105 107 140 111 125 124 110 111 144 115 129 128 114 115 148 119 133 132 118 150 117 146 134 131 149 146 113 142 130 127 145 142 109 138 126 123 141 138 106 136 122 121 137 136 107 140 120 125 139 140 111 144 124 129 143 144 115 148 128 133 147 148 119 152 132 135 151 150 183 146 166 165 149 146 179 142 162 161 145 142 175 138 158 157 141 138 172 136 154 153 137 136 173 140 156 155 139 140 177 144 160 159 143 144 181 148 164 163 147 148 185 152 168 167 151 187 150 183 169 166 186 183 146 179 165 162 182 179 142 175 161 158 178 175 138 172 157 154 174 172 136 173 153 156 171 173 140 177 155 160 176 177 144 181 159 164 180 181 148 185 163 168 184 185 152 189 167 170 188 187 224 183 205 204 186 183 220 179 201 200 182 179 216 175 197 196 178 175 212 172 193 192 174 172 210 173 191 190 171 173 214 177 195 194 176 177 218 181 199 198 180 181 222 185 203 202 184 185 226 189 207 206 188 227 187 224 208 205 228 224 183 220 204 201 223 220 179 216 200 197 219 216 175 212 196 193 215 212 172 210 192 191 211 210 173 214 190 195 213 214 177 218 194 199 217 218 181 222 198 203 221 222 185 226 202 207 225 226 189 229 206 209 230 227 265 224 262 263 228 224 257 220 255 254 223 220 249 216 247 246 219 216 241 212 239 238 215 212 236 210 232 231 211 210 237 214 234 233 213 214 245 218 243 242 217 218 253 222 251 250 221 222 261 226 259 258 225 226 269 229 267 266 230 265 224 257 263 255 264 257 220 249 254 247 256 249 216 241 246 239 248 241 212 236 238 232 240 236 210 237 231 234 235 237 214 245 233 243 244 245 218 253 242 251 252 253 222 261 250 259 260 261 226 269 258 267 268 265 300 257 297 298 264 257 292 249 290 289 256 249 284 241 282 281 248 241 276 236 274 273 240 236 272 237 271 270 235 237 280 245 278 277 244 245 288 253 286 285 252 253 296 261 294 293 260 261 304 269 302 301 268 300 257 292 298 290 299 292 249 284 289 282 291 284 241 276 281 274 283 276 236 272 273 271 275 272 237 280 270 278 279 280 245 288 277 286 287 288 253 296 285 294 295 296 261 304 293 302 303 300 331 292 328 329 299 292 323 284 321 320 291 284 315 276 313 312 283 276 310 272 306 305 275 272 311 280 308 307 279 280 319 288 317 316 287 288 327 296 325 324 295 296 335 304 333 332 303 331 292 323 329 321 330 323 284 315 320 313 322 315 276 310 312 306 314 310 272 311 305 308 309 311 280 319 307 317 318 319 288 327 316 325 326 327 296 335 324 333 334 331 358 323 355 356 330 323 350 315 348 347 322 315 342 310 340 339 314 310 338 311 337 336 309 311 346 319 344 343 318 319 354 327 352 351 326 327 362 335 360 359 334 358 323 350 356 348 357 350 315 342 347 340 349 342 310 338 339 337 341 338 311 346 336 344 345 346 319 354 343 352 353 354 327 362 351 360 361 358 381 350 378 379 357 350 373 342 371 370 349 342 368 338 364 363 341 338 369 346 366 365 345 346 377 354 375 374 353 354 385 362 383 382 361 381 350 373 379 371 380 373 342 368 370 364 372 368 338 369 363 366 367 369 346 377 365 375 376 377 354 385 374 383 384 381 400 373 397 398 380 373 392 368 390 389 372 368 388 369 387 386 367 369 396 377 394 393 376 377 404 385 402 401 384 400 373 392 398 390 399 392 368 388 389 387 391 388 369 396 386 394 395 396 377 404 393 402 403 400 415 392 412 413 399 392 410 388 406 405 391 388 411 396 408 407 395 396 419 404 417 416 403 415 392 410 413 406 414 410 388 411 405 408 409 411 396 419 407 417 418 415 426 410 423 424 414 410 422 411 421 420 409 411 430 419 428 427 418 426 410 422 424 421 425 422 411 430 420 428 429 426 436 422 431 433 425 422 437 430 434 432 429 436 422 437 433 434 435 436 438 437 440 439 435 </DataArray>
        <DataArray type="Int32" Name="offsets" format="ascii">6 12 18 24 30 36 42 48 54 60 66 72 78 84 90 96 102 108 114 120 126 132 138 144 150 156 162 168 174 180 186 192 198 204 210 216 222 228 234 240 246 252 258 264 270 276 282 288 294 300 306 312 318 324 330 336 342 348 354 360 366 372 378 384 390 396 402 408 414 420 426 432 438 444 450 456 462 468 474 480 486 492 498 504 510 516 522 528 534 540 546 552 558 564 570 576 582 588 594 600 606 612 618 624 630 636 642 648 654 660 666 672 678 684 690 696 702 708 714 720 726 732 738 744 750 756 762 768 774 780 786 792 798 804 810 816 822 828 834 840 846 852 858 864 870 876 882 888 894 900 906 912 918 924 930 936 942 948 954 960 966 972 978 984 990 996 1002 1008 1014 1020 1026 1032 1038 1044 1050 1056 1062 1068 1074 1080 1086 1092 1098 1104 1110 1116 1122 1128 1134 1140 1146 1152 1158 1164 1170 1176 1182 1188 1194 1200 </DataArray>
        <DataArray type="Int8" Name="types" format="ascii">69 69 69 69 69 69 69 69 69 69 69 69 69 69 69 69 69 69 69 69 69 69 69 69 69 69 69 69 69 69 69 69 69 69 69 69 69 69 69 69 69 69 69 69 69 69 69 69 69 69 69 69 69 69 69 69 69 69 69 69 69 69 69 69 69 69 69 69 69 69 69 69 69 69 69 69 69 69 69 69 69 69 69 69 69 69 69 69 69 69 69 69 69 69 69 69 69 69 69 69 69 69 69 69 69 69 69 69 69 69 69 69 69 69 69 69 69 69 69 69 69 69 69 69 69 69 69 69 69 69 69 69 69 69 69 69 69 69 69 69 69 69 69 69 69 69 69 69 69 69 69 69 69 69 69 69 69 69 69 69 69 69 69 69 69 69 69 69 69 69 69 69 69 69 69 69 69 69 69 69 69 69 69 69 69 69 69 69 69 69 69 69 69 69 69 69 69 69 69 69 </DataArray>
      </Cells>
      <CellData>
        <DataArray type="UInt8" Name="vtkGhostType" format="ascii" RangeMin="0" RangeMax="1">0 0 0 0 0 0 0 0 0 0 0 0 0 0 0 0 0 0 0 0 0 0 0 0 0 0 0 0 0 0 0 0 0 0 0 0 0 0 0 0 0 0 0 0 0 0 0 0 0 0 0 0 0 0 0 0 0 0 0 0 0 0 0 0 0 0 0 0 0 0 0 0 0 0 0 0 0 0 0 0 0 0 0 0 0 0 0 0 0 0 0 0 0 0 0 0 0 0 0 0 0 0 0 0 0 0 0 0 0 0 0 0 0 0 0 0 0 0 0 0 0 0 0 0 0 0 0 0 0 0 0 0 0 0 0 0 0 0 0 0 0 0 0 0 0 0 0 0 0 0 0 0 0 0 0 0 0 0 0 0 0 0 0 0 0 0 0 0 0 0 0 0 0 0 0 0 0 0 0 0 0 0 0 0 0 0 0 0 0 0 0 0 0 0 0 0 0 0 0 0 </DataArray>
        <DataArray type="Int64" IdType="1" Name="vtkOriginalCellIds" format="ascii" RangeMin="0" RangeMax="199">0 1 2 3 4 5 6 7 8 9 10 11 12 13 14 15 16 17 18 19 20 21 22 23 24 25 26 27 28 29 30 31 32 33 34 35 36 37 38 39 40 41 42 43 44 45 46 47 48 49 50 51 52 53 54 55 56 57 58 59 60 61 62 63 64 65 66 67 68 69 70 71 72 73 74 75 76 77 78 79 80 81 82 83 84 85 86 87 88 89 90 91 92 93 94 95 96 97 98 99 100 101 102 103 104 105 106 107 108 109 110 111 112 113 114 115 116 117 118 119 120 121 122 123 124 125 126 127 128 129 130 131 132 133 134 135 136 137 138 139 140 141 142 143 144 145 146 147 148 149 150 151 152 153 154 155 156 157 158 159 160 161 162 163 164 165 166 167 168 169 170 171 172 173 174 175 176 177 178 179 180 181 182 183 184 185 186 187 188 189 190 191 192 193 194 195 196 197 198 199 </DataArray>
      </CellData>
      <PointData Vectors="ExactVelocity">
        <DataArray type="Int64" IdType="1" Name="vtkOriginalPointIds" format="ascii" RangeMin="0" RangeMax="440">0 1 2 3 4 5 6 7 8 9 10 11 12 13 14 15 16 17 18 19 20 21 22 23 24 25 26 27 28 29 30 31 32 33 34 35 36 37 38 39 40 41 42 43 44 45 46 47 48 49 50 51 52 53 54 55 56 57 58 59 60 61 62 63 64 65 66 67 68 69 70 71 72 73 74 75 76 77 78 79 80 81 82 83 84 85 86 87 88 89 90 91 92 93 94 95 96 97 98 99 100 101 102 103 104 105 106 107 108 109 110 111 112 113 114 115 116 117 118 119 120 121 122 123 124 125 126 127 128 129 130 131 132 133 134 135 136 137 138 139 140 141 142 143 144 145 146 147 148 149 150 151 152 153 154 155 156 157 158 159 160 161 162 163 164 165 166 167 168 169 170 171 172 173 174 175 176 177 178 179 180 181 182 183 184 185 186 187 188 189 190 191 192 193 194 195 196 197 198 199 200 201 202 203 204 205 206 207 208 209 210 211 212 213 214 215 216 217 218 219 220 221 222 223 224 225 226 227 228 229 230 231 232 233 234 235 236 237 238 239 240 241 242 243 244 245 246 247 248 249 250 251 252 253 254 255 256 257 258 259 260 261 262 263 264 265 266 267 268 269 270 271 272 273 274 275 276 277 278 279 280 281 282 283 284 285 286 287 288 289 290 291 292 293 294 295 296 297 298 299 300 301 302 303 304 305 306 307 308 309 310 311 312 313 314 315 316 317 318 319 320 321 322 323 324 325 326 327 328 329 330 331 332 333 334 335 336 337 338 339 340 341 342 343 344 345 346 347 348 349 350 351 352 353 354 355 356 357 358 359 360 361 362 363 364 365 366 367 368 369 370 371 372 373 374 375 376 377 378 379 380 381 382 383 384 385 386 387 388 389 390 391 392 393 394 395 396 397 398 399 400 401 402 403 404 405 406 407 408 409 410 411 412 413 414 415 416 417 418 419 420 421 422 423 424 425 426 427 428 429 430 431 432 433 434 435 436 437 438 439 440 </DataArray>
        <DataArray type="UInt8" Name="vtkGhostType" format="ascii" RangeMin="0" RangeMax="0">0 0 0 0 0 0 0 0 0 0 0 0 0 0 0 0 0 0 0 0 0 0 0 0 0 0 0 0 0 0 0 0 0 0 0 0 0 0 0 0 0 0 0 0 0 0 0 0 0 0 0 0 0 0 0 0 0 0 0 0 0 0 0 0 0 0 0 0 0 0 0 0 0 0 0 0 0 0 0 0 0 0 0 0 0 0 0 0 0 0 0 0 0 0 0 0 0 0 0 0 0 0 0 0 0 0 0 0 0 0 0 0 0 0 0 0 0 0 0 0 0 0 0 0 0 0 0 0 0 0 0 0 0 0 0 0 0 0 0 0 0 0 0 0 0 0 0 0 0 0 0 0 0 0 0 0 0 0 0 0 0 0 0 0 0 0 0 0 0 0 0 0 0 0 0 0 0 0 0 0 0 0 0 0 0 0 0 0 0 0 0 0 0 0 0 0 0 0 0 0 0 0 0 0 0 0 0 0 0 0 0 0 0 0 0 0 0 0 0 0 0 0 0 0 0 0 0 0 0 0 0 0 0 0 0 0 0 0 0 0 0 0 0 0 0 0 0 0 0 0 0 0 0 0 0 0 0 0 0 0 0 0 0 0 0 0 0 0 0 0 0 0 0 0 0 0 0 0 0 0 0 0 0 0 0 0 0 0 0 0 0 0 0 0 0 0 0 0 0 0 0 0 0 0 0 0 0 0 0 0 0 0 0 0 0 0 0 0 0 0 0 0 0 0 0 0 0 0 0 0 0 0 0 0 0 0 0 0 0 0 0 0 0 0 0 0 0 0 0 0 0 0 0 0 0 0 0 0 0 0 0 0 0 0 0 0 0 0 0 0 0 0 0 0 0 0 0 0 0 0 0 0 0 0 0 0 0 0 0 0 0 0 0 0 0 0 0 0 0 0 0 0 0 0 0 0 0 0 0 0 0 0 0 0 0 0 0 0 0 0 0 0 0 0 0 0 0 0 0 0 0 0 0 0 0 0 0 0 0 0 0 </DataArray>